% Model:              230615_coil_gz_saddle_perturbed_squarearea__dissertation.mph
% Version:            COMSOL 5.5.0.359
% Date:               Jun 16 2023, 03:22
% Dimension:          2
% Nodes:              10000
% Expressions:        1
% Description:        Magnetic flux density, y component
% Length unit:        mm
% X                       Y                        mf.By (T)
-4.949999999999999        -4.949999999999999       5.0258122108197386E-5
-4.8500000000000005       -4.949999999999999       5.022265013737639E-5
-4.75                     -4.949999999999999       5.012107407042468E-5
-4.65                     -4.949999999999999       4.996257914332294E-5
-4.55                     -4.949999999999999       4.9755447893254244E-5
-4.449999999999999        -4.949999999999999       4.950687580596089E-5
-4.3500000000000005       -4.949999999999999       4.922354097428656E-5
-4.25                     -4.949999999999999       4.891121867947773E-5
-4.15                     -4.949999999999999       4.8575352332201515E-5
-4.050000000000001        -4.949999999999999       4.822042036065909E-5
-3.9499999999999997       -4.949999999999999       4.7850573138456045E-5
-3.8499999999999996       -4.949999999999999       4.74695683496818E-5
-3.75                     -4.949999999999999       4.708069665764637E-5
-3.6500000000000004       -4.949999999999999       4.66868007717615E-5
-3.5500000000000003       -4.949999999999999       4.6290377608785365E-5
-3.4499999999999997       -4.949999999999999       4.589360747711799E-5
-3.3499999999999996       -4.949999999999999       4.549839644977715E-5
-3.2500000000000004       -4.949999999999999       4.510641083164022E-5
-3.1499999999999995       -4.949999999999999       4.471912013688384E-5
-3.0499999999999994       -4.949999999999999       4.433783016567277E-5
-2.95                     -4.949999999999999       4.396367150330042E-5
-2.8500000000000005       -4.949999999999999       4.359761831665375E-5
-2.75                     -4.949999999999999       4.324051819920844E-5
-2.6500000000000004       -4.949999999999999       4.289309528529479E-5
-2.55                     -4.949999999999999       4.255596554657415E-5
-2.45                     -4.949999999999999       4.222966097637203E-5
-2.3499999999999996       -4.949999999999999       4.191463060286831E-5
-2.2500000000000004       -4.949999999999999       4.161125482603536E-5
-2.1500000000000004       -4.949999999999999       4.131986764509094E-5
-2.0500000000000007       -4.949999999999999       4.1040747357499055E-5
-1.9500000000000006       -4.949999999999999       4.0774122264502795E-5
-1.8500000000000003       -4.949999999999999       4.052019465765029E-5
-1.75                     -4.949999999999999       4.027913574741664E-5
-1.6500000000000001       -4.949999999999999       4.005107618834692E-5
-1.5500000000000005       -4.949999999999999       3.9836128505710755E-5
-1.4500000000000002       -4.949999999999999       3.9634385292617554E-5
-1.3499999999999999       -4.949999999999999       3.9445921999444693E-5
-1.25                     -4.949999999999999       3.9270799665011964E-5
-1.1500000000000001       -4.949999999999999       3.9109061082112805E-5
-1.05                     -4.949999999999999       3.896073761884431E-5
-0.9499999999999994       -4.949999999999999       3.882585547160259E-5
-0.8500000000000001       -4.949999999999999       3.870443423830349E-5
-0.75                     -4.949999999999999       3.859648559410952E-5
-0.65                     -4.949999999999999       3.850202059040498E-5
-0.5499999999999994       -4.949999999999999       3.842104634172961E-5
-0.44999999999999973      -4.949999999999999       3.835356592126488E-5
-0.34999999999999964      -4.949999999999999       3.829958327815263E-5
-0.25                     -4.949999999999999       3.8259099662494085E-5
-0.15000000000000036      -4.949999999999999       3.823211298805142E-5
-0.04999999999999983      -4.949999999999999       3.8218622910647534E-5
0.04999999999999983       -4.949999999999999       3.821862902325537E-5
0.15000000000000036       -4.949999999999999       3.8232129155164796E-5
0.25                      -4.949999999999999       3.825912341956763E-5
0.35000000000000053       -4.949999999999999       3.829961382492393E-5
0.4500000000000002        -4.949999999999999       3.835359995499184E-5
0.5500000000000007        -4.949999999999999       3.842108125563145E-5
0.6499999999999995        -4.949999999999999       3.8502058674763654E-5
0.75                      -4.949999999999999       3.859652886802934E-5
0.8499999999999996        -4.949999999999999       3.870448508380289E-5
0.9499999999999994        -4.949999999999999       3.8825917772378035E-5
1.05                      -4.949999999999999       3.896081000725799E-5
1.1500000000000001        -4.949999999999999       3.910913811375374E-5
1.25                      -4.949999999999999       3.9270878039853365E-5
1.3499999999999999        -4.949999999999999       3.944599665447737E-5
1.4500000000000002        -4.949999999999999       3.963444768045993E-5
1.5500000000000005        -4.949999999999999       3.983617491194113E-5
1.6500000000000004        -4.949999999999999       4.005110333053956E-5
1.7500000000000002        -4.949999999999999       4.027913558203838E-5
1.8500000000000005        -4.949999999999999       4.052016529708046E-5
1.9499999999999993        -4.949999999999999       4.0774060894560634E-5
2.05                      -4.949999999999999       4.104066119702219E-5
2.1499999999999995        -4.949999999999999       4.131977447900904E-5
2.2500000000000004        -4.949999999999999       4.161115842250793E-5
2.3499999999999996        -4.949999999999999       4.191452834864117E-5
2.45                      -4.949999999999999       4.222956158714222E-5
2.55                      -4.949999999999999       4.2555871446127975E-5
2.6500000000000004        -4.949999999999999       4.2892992457048694E-5
2.75                      -4.949999999999999       4.32404112860922E-5
2.8500000000000005        -4.949999999999999       4.359753042019024E-5
2.95                      -4.949999999999999       4.396360930591865E-5
3.0500000000000007        -4.949999999999999       4.433781061011487E-5
3.149999999999999         -4.949999999999999       4.471914470304461E-5
3.2500000000000004        -4.949999999999999       4.510650912982901E-5
3.3499999999999996        -4.949999999999999       4.54985676705589E-5
3.4499999999999993        -4.949999999999999       4.589382956607793E-5
3.5500000000000003        -4.949999999999999       4.62905822301585E-5
3.6500000000000004        -4.949999999999999       4.66869655698304E-5
3.75                      -4.949999999999999       4.708079438422858E-5
3.8499999999999996        -4.949999999999999       4.7469574665839473E-5
3.9499999999999997        -4.949999999999999       4.7850432026570454E-5
4.050000000000001         -4.949999999999999       4.822010351899569E-5
4.15                      -4.949999999999999       4.857492734058083E-5
4.25                      -4.949999999999999       4.8910737981969145E-5
4.350000000000001         -4.949999999999999       4.922312437635802E-5
4.449999999999999         -4.949999999999999       4.950656640772902E-5
4.549999999999999         -4.949999999999999       4.975517375962651E-5
4.65                      -4.949999999999999       4.996248815085125E-5
4.75                      -4.949999999999999       5.0121151388134725E-5
4.8500000000000005        -4.949999999999999       5.022307767704888E-5
4.949999999999999         -4.949999999999999       5.0259045513682214E-5
-4.949999999999999        -4.8500000000000005      4.8238109843611835E-5
-4.8500000000000005       -4.8500000000000005      4.8273138769962274E-5
-4.75                     -4.8500000000000005      4.8241790557458114E-5
-4.65                     -4.8500000000000005      4.8152561907465194E-5
-4.55                     -4.8500000000000005      4.801312193382384E-5
-4.449999999999999        -4.8500000000000005      4.78304125813963E-5
-4.3500000000000005       -4.8500000000000005      4.76107349928352E-5
-4.25                     -4.8500000000000005      4.735977540320545E-5
-4.15                     -4.8500000000000005      4.708266683909551E-5
-4.050000000000001        -4.8500000000000005      4.678397876072808E-5
-3.9499999999999997       -4.8500000000000005      4.646781326367278E-5
-3.8499999999999996       -4.8500000000000005      4.6137867640930465E-5
-3.75                     -4.8500000000000005      4.579743148525276E-5
-3.6500000000000004       -4.8500000000000005      4.5449411957510386E-5
-3.5500000000000003       -4.8500000000000005      4.5096376970070614E-5
-3.4499999999999997       -4.8500000000000005      4.474059409947726E-5
-3.3499999999999996       -4.8500000000000005      4.4384064795703715E-5
-3.2500000000000004       -4.8500000000000005      4.402855674040549E-5
-3.1499999999999995       -4.8500000000000005      4.3675634502230506E-5
-3.0499999999999994       -4.8500000000000005      4.332668276462153E-5
-2.95                     -4.8500000000000005      4.29829195025916E-5
-2.8500000000000005       -4.8500000000000005      4.2645411480298296E-5
-2.75                     -4.8500000000000005      4.231509158149474E-5
-2.6500000000000004       -4.8500000000000005      4.1992771868834406E-5
-2.55                     -4.8500000000000005      4.1679157373598926E-5
-2.45                     -4.8500000000000005      4.137486040504691E-5
-2.3499999999999996       -4.8500000000000005      4.1080410819616945E-5
-2.2500000000000004       -4.8500000000000005      4.079626747395769E-5
-2.1500000000000004       -4.8500000000000005      4.052282896761279E-5
-2.0500000000000007       -4.8500000000000005      4.02604387231279E-5
-1.9500000000000006       -4.8500000000000005      4.000939185288993E-5
-1.8500000000000003       -4.8500000000000005      3.9769943828752124E-5
-1.75                     -4.8500000000000005      3.9542313800120175E-5
-1.6500000000000001       -4.8500000000000005      3.93266869990569E-5
-1.5500000000000005       -4.8500000000000005      3.9123221126193004E-5
-1.4500000000000002       -4.8500000000000005      3.893205026153836E-5
-1.3499999999999999       -4.8500000000000005      3.875328768930382E-5
-1.25                     -4.8500000000000005      3.8587028031690455E-5
-1.1500000000000001       -4.8500000000000005      3.843334869758587E-5
-1.05                     -4.8500000000000005      3.8292313143178724E-5
-0.9499999999999994       -4.8500000000000005      3.816397398587276E-5
-0.8500000000000001       -4.8500000000000005      3.8048374319212296E-5
-0.75                     -4.8500000000000005      3.794554901717065E-5
-0.65                     -4.8500000000000005      3.7855526673372E-5
-0.5499999999999994       -4.8500000000000005      3.777833014161256E-5
-0.44999999999999973      -4.8500000000000005      3.771397726739568E-5
-0.34999999999999964      -4.8500000000000005      3.766248201501297E-5
-0.25                     -4.8500000000000005      3.762385439385765E-5
-0.15000000000000036      -4.8500000000000005      3.759810085539411E-5
-0.04999999999999983      -4.8500000000000005      3.758522538745591E-5
0.04999999999999983       -4.8500000000000005      3.758522964295937E-5
0.15000000000000036       -4.8500000000000005      3.759811299260678E-5
0.25                      -4.8500000000000005      3.7623873200647974E-5
0.35000000000000053       -4.8500000000000005      3.7662506251612815E-5
0.4500000000000002        -4.8500000000000005      3.771400545675418E-5
0.5500000000000007        -4.8500000000000005      3.7778361342002635E-5
0.6499999999999995        -4.8500000000000005      3.7855561309963505E-5
0.75                      -4.8500000000000005      3.794558816184319E-5
0.8499999999999996        -4.8500000000000005      3.804841917621628E-5
0.9499999999999994        -4.8500000000000005      3.8164025331939924E-5
1.05                      -4.8500000000000005      3.8292369942865226E-5
1.1500000000000001        -4.8500000000000005      3.843340814811793E-5
1.25                      -4.8500000000000005      3.8587086764502384E-5
1.3499999999999999        -4.8500000000000005      3.875334160617687E-5
1.4500000000000002        -4.8500000000000005      3.893209461898172E-5
1.5500000000000005        -4.8500000000000005      3.912325203391756E-5
1.6500000000000004        -4.8500000000000005      3.932670098899418E-5
1.7500000000000002        -4.8500000000000005      3.954230736754308E-5
1.8500000000000005        -4.8500000000000005      3.976991517208052E-5
1.9499999999999993        -4.8500000000000005      4.00093414563283E-5
2.05                      -4.8500000000000005      4.026037095096643E-5
2.1499999999999995        -4.8500000000000005      4.0522750685371255E-5
2.2500000000000004        -4.8500000000000005      4.0796183069527054E-5
2.3499999999999996        -4.8500000000000005      4.10803227411384E-5
2.45                      -4.8500000000000005      4.1374771896592055E-5
2.55                      -4.8500000000000005      4.167906981977699E-5
2.6500000000000004        -4.8500000000000005      4.199268459096089E-5
2.75                      -4.8500000000000005      4.231500856228566E-5
2.8500000000000005        -4.8500000000000005      4.264534207994947E-5
2.95                      -4.8500000000000005      4.2982872159796E-5
3.0500000000000007        -4.8500000000000005      4.332666564706451E-5
3.149999999999999         -4.8500000000000005      4.367565475105287E-5
3.2500000000000004        -4.8500000000000005      4.40286203290104E-5
3.3499999999999996        -4.8500000000000005      4.4384168682111126E-5
3.4499999999999993        -4.8500000000000005      4.474072000225829E-5
3.5500000000000003        -4.8500000000000005      4.509649532353692E-5
3.6500000000000004        -4.8500000000000005      4.544949801306347E-5
3.75                      -4.8500000000000005      4.5797463398445486E-5
3.8499999999999996        -4.8500000000000005      4.61378236115866E-5
3.9499999999999997        -4.8500000000000005      4.64676725519501E-5
4.050000000000001         -4.8500000000000005      4.678373823342043E-5
4.15                      -4.8500000000000005      4.7082355220712214E-5
4.25                      -4.8500000000000005      4.7359436385685574E-5
4.350000000000001         -4.8500000000000005      4.7610423066211526E-5
4.449999999999999         -4.8500000000000005      4.7830162827311104E-5
4.549999999999999         -4.8500000000000005      4.8012955873352015E-5
4.65                      -4.8500000000000005      4.815252887150631E-5
4.75                      -4.8500000000000005      4.824194366847991E-5
4.8500000000000005        -4.8500000000000005      4.827355861996473E-5
4.949999999999999         -4.8500000000000005      4.823884426442127E-5
-4.949999999999999        -4.75                    4.6293191742861076E-5
-4.8500000000000005       -4.75                    4.6389728417347896E-5
-4.75                     -4.75                    4.642025868072963E-5
-4.65                     -4.75                    4.639262974471357E-5
-4.55                     -4.75                    4.631396700812521E-5
-4.449999999999999        -4.75                    4.619080680534369E-5
-4.3500000000000005       -4.75                    4.6029127104284714E-5
-4.25                     -4.75                    4.583437407129705E-5
-4.15                     -4.75                    4.561149046844288E-5
-4.050000000000001        -4.75                    4.5364943018962406E-5
-3.9499999999999997       -4.75                    4.50987644744824E-5
-3.8499999999999996       -4.75                    4.481659262340782E-5
-3.75                     -4.75                    4.4521693804565024E-5
-3.6500000000000004       -4.75                    4.4216988027725896E-5
-3.5500000000000003       -4.75                    4.390507948731137E-5
-3.4499999999999997       -4.75                    4.358828785669968E-5
-3.3499999999999996       -4.75                    4.32686778595153E-5
-3.2500000000000004       -4.75                    4.294808690483836E-5
-3.1499999999999995       -4.75                    4.262815013258052E-5
-3.0499999999999994       -4.75                    4.231032134173773E-5
-2.95                     -4.75                    4.199588988859368E-5
-2.8500000000000005       -4.75                    4.168599622012917E-5
-2.75                     -4.75                    4.1381646800162795E-5
-2.6500000000000004       -4.75                    4.1083727742754635E-5
-2.55                     -4.75                    4.0793017743461296E-5
-2.45                     -4.75                    4.051020029375578E-5
-2.3499999999999996       -4.75                    4.0235874588394114E-5
-2.2500000000000004       -4.75                    3.997056568155531E-5
-2.1500000000000004       -4.75                    3.971473348472991E-5
-2.0500000000000007       -4.75                    3.946878005834646E-5
-1.9500000000000006       -4.75                    3.923305641457212E-5
-1.8500000000000003       -4.75                    3.900786888032863E-5
-1.75                     -4.75                    3.8793483993345794E-5
-1.6500000000000001       -4.75                    3.85901327417498E-5
-1.5500000000000005       -4.75                    3.839801504469821E-5
-1.4500000000000002       -4.75                    3.821730366299795E-5
-1.3499999999999999       -4.75                    3.8048147366525076E-5
-1.25                     -4.75                    3.7890673553010057E-5
-1.1500000000000001       -4.75                    3.7744990631175E-5
-1.05                     -4.75                    3.761119059432175E-5
-0.9499999999999994       -4.75                    3.7489351422443845E-5
-0.8500000000000001       -4.75                    3.737953894007727E-5
-0.75                     -4.75                    3.728180840380324E-5
-0.65                     -4.75                    3.71962059345171E-5
-0.5499999999999994       -4.75                    3.7122769581627755E-5
-0.44999999999999973      -4.75                    3.7061530222065414E-5
-0.34999999999999964      -4.75                    3.701251234466524E-5
-0.25                     -4.75                    3.697573456954967E-5
-0.15000000000000036      -4.75                    3.695121016244825E-5
-0.04999999999999983      -4.75                    3.6938947582864596E-5
0.04999999999999983       -4.75                    3.693895081741696E-5
0.15000000000000036       -4.75                    3.6951219589586144E-5
0.25                      -4.75                    3.6975749516076E-5
0.35000000000000053       -4.75                    3.7012531974038656E-5
0.4500000000000002        -4.75                    3.706155370594848E-5
0.5500000000000007        -4.75                    3.7122796394496324E-5
0.6499999999999995        -4.75                    3.719623606216781E-5
0.75                      -4.75                    3.7281842167257214E-5
0.8499999999999996        -4.75                    3.737957664718438E-5
0.9499999999999994        -4.75                    3.748939293418065E-5
1.05                      -4.75                    3.761123487551983E-5
1.1500000000000001        -4.75                    3.774503570070781E-5
1.25                      -4.75                    3.789071677590371E-5
1.3499999999999999        -4.75                    3.804818564906238E-5
1.4500000000000002        -4.75                    3.8217333719505165E-5
1.5500000000000005        -4.75                    3.839803383619187E-5
1.6500000000000004        -4.75                    3.859013763161767E-5
1.7500000000000002        -4.75                    3.8793472929575526E-5
1.8500000000000005        -4.75                    3.900784095962681E-5
1.9499999999999993        -4.75                    3.923301238178415E-5
2.05                      -4.75                    3.94687225086769E-5
2.1499999999999995        -4.75                    3.971466608009394E-5
2.2500000000000004        -4.75                    3.9970491760862525E-5
2.3499999999999996        -4.75                    4.0235796862422785E-5
2.45                      -4.75                    4.051012117035698E-5
2.55                      -4.75                    4.0792939121873113E-5
2.6500000000000004        -4.75                    4.108365154032369E-5
2.75                      -4.75                    4.1381576558654805E-5
2.8500000000000005        -4.75                    4.168593730630365E-5
2.95                      -4.75                    4.199584799154043E-5
3.0500000000000007        -4.75                    4.231030156769764E-5
3.149999999999999         -4.75                    4.262815618322404E-5
3.2500000000000004        -4.75                    4.294811950286811E-5
3.3499999999999996        -4.75                    4.326873205742485E-5
3.4499999999999993        -4.75                    4.358835132415786E-5
3.5500000000000003        -4.75                    4.390513477481855E-5
3.6500000000000004        -4.75                    4.4217017274891384E-5
3.75                      -4.75                    4.4521680681645024E-5
3.8499999999999996        -4.75                    4.481652317115808E-5
3.9499999999999997        -4.75                    4.5098630024662575E-5
4.050000000000001         -4.75                    4.536474616185816E-5
4.15                      -4.75                    4.561124861693402E-5
4.25                      -4.75                    4.583411552162605E-5
4.350000000000001         -4.75                    4.602888473587243E-5
4.449999999999999         -4.75                    4.619061036267982E-5
4.549999999999999         -4.75                    4.631384473609959E-5
4.65                      -4.75                    4.639261609603351E-5
4.75                      -4.75                    4.642039430580726E-5
4.8500000000000005        -4.75                    4.639005888162693E-5
4.949999999999999         -4.75                    4.62937571575104E-5
-4.949999999999999        -4.65                    4.442225972531248E-5
-4.8500000000000005       -4.65                    4.457205347244566E-5
-4.75                     -4.65                    4.465677579628898E-5
-4.65                     -4.65                    4.4683633032089623E-5
-4.55                     -4.65                    4.4659216821845106E-5
-4.449999999999999        -4.65                    4.458963147320515E-5
-4.3500000000000005       -4.65                    4.448050902113304E-5
-4.25                     -4.65                    4.433702287641494E-5
-4.15                     -4.65                    4.416390594368918E-5
-4.050000000000001        -4.65                    4.396547286957845E-5
-3.9499999999999997       -4.65                    4.3745646847377455E-5
-3.8499999999999996       -4.65                    4.350798663561431E-5
-3.75                     -4.65                    4.325571045461291E-5
-3.6500000000000004       -4.65                    4.299171946184861E-5
-3.5500000000000003       -4.65                    4.27186226169616E-5
-3.4499999999999997       -4.65                    4.243876212850071E-5
-3.3499999999999996       -4.65                    4.215423826010511E-5
-3.2500000000000004       -4.65                    4.186693276790083E-5
-3.1499999999999995       -4.65                    4.1578530370970944E-5
-3.0499999999999994       -4.65                    4.1290537748149835E-5
-2.95                     -4.65                    4.100430018855298E-5
-2.8500000000000005       -4.65                    4.072101665580428E-5
-2.75                     -4.65                    4.044175375800299E-5
-2.6500000000000004       -4.65                    4.0167458723476756E-5
-2.55                     -4.65                    3.9898971513123384E-5
-2.45                     -4.65                    3.9637036085601196E-5
-2.3499999999999996       -4.65                    3.93823107329491E-5
-2.2500000000000004       -4.65                    3.9135377513107564E-5
-2.1500000000000004       -4.65                    3.889675069607541E-5
-2.0500000000000007       -4.65                    3.866688419634373E-5
-1.9500000000000006       -4.65                    3.844617823774359E-5
-1.8500000000000003       -4.65                    3.823498531771897E-5
-1.75                     -4.65                    3.803361538049737E-5
-1.6500000000000001       -4.65                    3.784234040659205E-5
-1.5500000000000005       -4.65                    3.766139864520792E-5
-1.4500000000000002       -4.65                    3.7490998409121174E-5
-1.3499999999999999       -4.65                    3.733132137055215E-5
-1.25                     -4.65                    3.718252543584243E-5
-1.1500000000000001       -4.65                    3.704474735083934E-5
-1.05                     -4.65                    3.691810515136734E-5
-0.9499999999999994       -4.65                    3.6802700396321606E-5
-0.8500000000000001       -4.65                    3.669862009636025E-5
-0.75                     -4.65                    3.6605938371597615E-5
-0.65                     -4.65                    3.652471787340316E-5
-0.5499999999999994       -4.65                    3.645501096531407E-5
-0.44999999999999973      -4.65                    3.6396860706221154E-5
-0.34999999999999964      -4.65                    3.635030166499626E-5
-0.25                     -4.65                    3.631536057581921E-5
-0.15000000000000036      -4.65                    3.629205689055352E-5
-0.04999999999999983      -4.65                    3.6280403241112246E-5
0.04999999999999983       -4.65                    3.628040576978597E-5
0.15000000000000036       -4.65                    3.629206432473677E-5
0.25                      -4.65                    3.631537251446514E-5
0.35000000000000053       -4.65                    3.635031757570735E-5
0.4500000000000002        -4.65                    3.63968800578063E-5
0.5500000000000007        -4.65                    3.645503336176573E-5
0.6499999999999995        -4.65                    3.652474311601595E-5
0.75                      -4.65                    3.6605966375956226E-5
0.8499999999999996        -4.65                    3.66986506968799E-5
0.9499999999999994        -4.65                    3.6802733105372426E-5
1.05                      -4.65                    3.691813896184326E-5
1.1500000000000001        -4.65                    3.704478069300948E-5
1.25                      -4.65                    3.718255628261853E-5
1.3499999999999999        -4.65                    3.7331347400352225E-5
1.4500000000000002        -4.65                    3.7491017215245706E-5
1.5500000000000005        -4.65                    3.766140797646188E-5
1.6500000000000004        -4.65                    3.7842338371117293E-5
1.7500000000000002        -4.65                    3.8033600663037416E-5
1.8500000000000005        -4.65                    3.823495745547373E-5
1.9499999999999993        -4.65                    3.844613783337247E-5
2.05                      -4.65                    3.866683289669115E-5
2.1499999999999995        -4.65                    3.8896690812527206E-5
2.2500000000000004        -4.65                    3.9135311490093034E-5
2.3499999999999996        -4.65                    3.93822408712582E-5
2.45                      -4.65                    3.963696451976653E-5
2.55                      -4.65                    3.989890027868253E-5
2.6500000000000004        -4.65                    4.016739006183644E-5
2.75                      -4.65                    4.044169055163375E-5
2.8500000000000005        -4.65                    4.072096241500801E-5
2.95                      -4.65                    4.10042584725517E-5
3.0500000000000007        -4.65                    4.129051144605146E-5
3.149999999999999         -4.65                    4.157852089353156E-5
3.2500000000000004        -4.65                    4.1866939000774E-5
3.3499999999999996        -4.65                    4.215425547100034E-5
3.4499999999999993        -4.65                    4.243878162648331E-5
3.5500000000000003        -4.65                    4.2718632902750485E-5
3.6500000000000004        -4.65                    4.299170829945769E-5
3.75                      -4.65                    4.325566665443478E-5
3.8499999999999996        -4.65                    4.3507901641248495E-5
3.9499999999999997        -4.65                    4.3745516867144695E-5
4.050000000000001         -4.65                    4.3965301343208175E-5
4.15                      -4.65                    4.416370460656142E-5
4.25                      -4.65                    4.433681016015188E-5
4.350000000000001         -4.65                    4.448030683082942E-5
4.449999999999999         -4.65                    4.458946222534166E-5
4.549999999999999         -4.65                    4.465910309076753E-5
4.65                      -4.65                    4.468359872956287E-5
4.75                      -4.65                    4.465684578338485E-5
4.8500000000000005        -4.65                    4.457225160865026E-5
4.949999999999999         -4.65                    4.4422615802118386E-5
-4.949999999999999        -4.55                    4.2623657683119E-5
-4.8500000000000005       -4.55                    4.281919929548774E-5
-4.75                     -4.55                    4.2951065413096315E-5
-4.65                     -4.55                    4.302582897593746E-5
-4.55                     -4.55                    4.3049556906904416E-5
-4.449999999999999        -4.55                    4.3027916662154677E-5
-4.3500000000000005       -4.55                    4.29661811180621E-5
-4.25                     -4.55                    4.286923257016508E-5
-4.15                     -4.55                    4.2741572322099756E-5
-4.050000000000001        -4.55                    4.2587335044256686E-5