% Model:              230615_coil_tx_saddle_perturbed_squarearea__dissertation.mph
% Version:            COMSOL 5.5.0.359
% Date:               Jun 16 2023, 04:33
% Dimension:          2
% Nodes:              40000
% Expressions:        1
% Description:        Magnetic flux density, x component
% Length unit:        mm
% X                       Y                        mf.Bx (T)
-4.9750000000000005       -4.9750000000000005      0.0034922831036596374
-4.925000000000001        -4.9750000000000005      0.0033472216256590446
-4.875                    -4.9750000000000005      0.0029887731516035046
-4.825                    -4.9750000000000005      0.002741449054556338
-4.775                    -4.9750000000000005      0.0025849409287914907
-4.725                    -4.9750000000000005      0.002463105497191409
-4.675000000000002        -4.9750000000000005      0.0023728627616068877
-4.625                    -4.9750000000000005      0.002299762905502547
-4.574999999999999        -4.9750000000000005      0.0022416017103779285
-4.525                    -4.9750000000000005      0.0021924777130456134
-4.475                    -4.9750000000000005      0.0021515051205392853
-4.425000000000001        -4.9750000000000005      0.0021156933673770794
-4.375                    -4.9750000000000005      0.0020844758728536467
-4.324999999999999        -4.9750000000000005      0.0020562433608070016
-4.275                    -4.9750000000000005      0.0020306697618250598
-4.225                    -4.9750000000000005      0.00200686767984843
-4.175000000000001        -4.9750000000000005      0.0019845288963230966
-4.125                    -4.9750000000000005      0.0019631129024665762
-4.074999999999999        -4.9750000000000005      0.0019425485525362651
-4.025                    -4.9750000000000005      0.0019224751752196084
-3.974999999999999        -4.9750000000000005      0.001902808444402351
-3.925                    -4.9750000000000005      0.001883369936410472
-3.875                    -4.9750000000000005      0.0018641009967472742
-3.8250000000000006       -4.9750000000000005      0.0018449107824944212
-3.775                    -4.9750000000000005      0.0018257669962914638
-3.7250000000000005       -4.9750000000000005      0.001806630902002545
-3.6749999999999994       -4.9750000000000005      0.0017874931834844924
-3.625                    -4.9750000000000005      0.0017683356191622124
-3.5750000000000006       -4.9750000000000005      0.001749163257946034
-3.5250000000000004       -4.9750000000000005      0.0017299769592418373
-3.4749999999999996       -4.9750000000000005      0.001710784649170519
-3.4250000000000007       -4.9750000000000005      0.0016916019217869066
-3.375                    -4.9750000000000005      0.0016724384176291952
-3.3249999999999997       -4.9750000000000005      0.0016533167001692435
-3.2750000000000004       -4.9750000000000005      0.0016342489146447755
-3.2249999999999996       -4.9750000000000005      0.0016152620048503527
-3.1750000000000003       -4.9750000000000005      0.0015963673627723168
-3.125                    -4.9750000000000005      0.001577595113926747
-3.0749999999999997       -4.9750000000000005      0.0015589553893791681
-3.0250000000000004       -4.9750000000000005      0.0015404794930076978
-2.9749999999999996       -4.9750000000000005      0.0015221773230262832
-2.9250000000000003       -4.9750000000000005      0.0015040799393525393
-2.875                    -4.9750000000000005      0.001486196138070663
-2.8249999999999997       -4.9750000000000005      0.001468554707933137
-2.7749999999999995       -4.9750000000000005      0.0014511646914803671
-2.7249999999999996       -4.9750000000000005      0.0014340506692696175
-2.675                    -4.9750000000000005      0.001417223050191529
-2.625                    -4.9750000000000005      0.0014007031017193232
-2.5750000000000006       -4.9750000000000005      0.0013844984936488187
-2.5249999999999995       -4.9750000000000005      0.00136862886713334
-2.4750000000000005       -4.9750000000000005      0.0013530988027688332
-2.425                    -4.9750000000000005      0.0013379241234759117
-2.375                    -4.9750000000000005      0.001323109674773053
-2.3249999999999993       -4.9750000000000005      0.0013086674925272296
-2.2750000000000004       -4.9750000000000005      0.0012945998828494507
-2.2249999999999996       -4.9750000000000005      0.0012809141480378216
-2.1750000000000007       -4.9750000000000005      0.0012676125902855192
-2.125                    -4.9750000000000005      0.0012546987575035409
-2.075                    -4.9750000000000005      0.0012421743549648455
-2.0250000000000004       -4.9750000000000005      0.0012300400838190413
-1.9749999999999999       -4.9750000000000005      0.0012182954022769948
-1.9249999999999998       -4.9750000000000005      0.0012069385798685434
-1.875                    -4.9750000000000005      0.0011959676315075583
-1.8250000000000002       -4.9750000000000005      0.0011853782063596325
-1.7750000000000001       -4.9750000000000005      0.001175168458972566
-1.7249999999999996       -4.9750000000000005      0.0011653325798883876
-1.6749999999999998       -4.9750000000000005      0.0011558681033184983
-1.6250000000000002       -4.9750000000000005      0.0011467676477165257
-1.5749999999999995       -4.9750000000000005      0.0011380284955803913
-1.5250000000000004       -4.9750000000000005      0.001129641983132232
-1.4749999999999999       -4.9750000000000005      0.0011216053589957406
-1.4250000000000005       -4.9750000000000005      0.00111390940094365
-1.375                    -4.9750000000000005      0.0011065509418542114
-1.3250000000000006       -4.9750000000000005      0.001099520465150602
-1.2749999999999997       -4.9750000000000005      0.0010928149704551174
-1.2250000000000003       -4.9750000000000005      0.0010864247327629865
-1.1749999999999994       -4.9750000000000005      0.001080346993106955
-1.1250000000000002       -4.9750000000000005      0.0010745722732511342
-1.0749999999999995       -4.9750000000000005      0.0010690975140376887
-1.0250000000000001       -4.9750000000000005      0.0010639138292144342
-0.9749999999999996       -4.9750000000000005      0.0010590183169105697
-0.9250000000000007       -4.9750000000000005      0.0010544024789947062
-0.875                    -4.9750000000000005      0.001050063767371131
-0.8250000000000002       -4.9750000000000005      0.001045994347769456
-0.7750000000000004       -4.9750000000000005      0.0010421917660152478
-0.7249999999999996       -4.9750000000000005      0.0010386490023380106
-0.6749999999999998       -4.9750000000000005      0.0010353638165037842
-0.625                    -4.9750000000000005      0.0010323299607633975
-0.5750000000000002       -4.9750000000000005      0.0010295455330819288
-0.5250000000000004       -4.9750000000000005      0.0010270051296951987
-0.4749999999999997       -4.9750000000000005      0.0010247070581700206
-0.4249999999999998       -4.9750000000000005      0.0010226467900379685
-0.375                    -4.9750000000000005      0.0010208229589699976
-0.3249999999999993       -4.9750000000000005      0.0010192318829438341
-0.27500000000000036      -4.9750000000000005      0.0010178725467795118
-0.2250000000000001       -4.9750000000000005      0.0010167421827452752
-0.17500000000000027      -4.9750000000000005      0.001015840015647833
-0.125                    -4.9750000000000005      0.001015164229316389
-0.07500000000000062      -4.9750000000000005      0.0010147143434595662
-0.024999999999999915     -4.9750000000000005      0.0010144894403788594
0.02499999999999947       -4.9750000000000005      0.0010144893698997637
0.07499999999999929       -4.9750000000000005      0.001014714130733364
0.125                     -4.9750000000000005      0.001015163886380173
0.17499999999999982       -4.9750000000000005      0.0010158395507678865
0.22499999999999964       -4.9750000000000005      0.0010167415872357618
0.27499999999999947       -4.9750000000000005      0.0010178718262102635
0.3249999999999993        -4.9750000000000005      0.001019231026205044
0.375                     -4.9750000000000005      0.0010208219433984513
0.4249999999999998        -4.9750000000000005      0.001022645664954616
0.4749999999999997        -4.9750000000000005      0.0010247058447876937
0.5250000000000004        -4.9750000000000005      0.001027003848198755
0.5750000000000002        -4.9750000000000005      0.0010295442547601354
0.625                     -4.9750000000000005      0.001032328644582897
0.6749999999999998        -4.9750000000000005      0.0010353624662589405
0.7249999999999996        -4.9750000000000005      0.0010386476821001582
0.7750000000000004        -4.9750000000000005      0.0010421904697921547
0.8250000000000002        -4.9750000000000005      0.0010459930892568606
0.875                     -4.9750000000000005      0.001050062611767665
0.9250000000000007        -4.9750000000000005      0.0010544013680171026
0.9750000000000006        -4.9750000000000005      0.001059017263801833
1.0250000000000004        -4.9750000000000005      0.0010639128980958496
1.0750000000000002        -4.9750000000000005      0.0010690967132313389
1.1250000000000004        -4.9750000000000005      0.0010745716182605101
1.1750000000000007        -4.9750000000000005      0.0010803465811707108
1.2250000000000005        -4.9750000000000005      0.0010864244062875178
1.2749999999999995        -4.9750000000000005      0.0010928144559580381
1.3249999999999993        -4.9750000000000005      0.0010995199410640795
1.3749999999999998        -4.9750000000000005      0.0011065501936956938
1.4249999999999998        -4.9750000000000005      0.001113908580876826
1.4749999999999996        -4.9750000000000005      0.0011216046117387486
1.5249999999999995        -4.9750000000000005      0.0011296411790430246
1.5749999999999995        -4.9750000000000005      0.0011380274415648264
1.6250000000000002        -4.9750000000000005      0.0011467666728149674
1.6749999999999998        -4.9750000000000005      0.0011558670518111622
1.7249999999999996        -4.9750000000000005      0.0011653318554714308
1.7750000000000001        -4.9750000000000005      0.001175168291190571
1.8250000000000002        -4.9750000000000005      0.0011853785393939854
1.875                     -4.9750000000000005      0.0011959688802169596
1.9249999999999998        -4.9750000000000005      0.0012069412238059816
1.9749999999999999        -4.9750000000000005      0.0012182998209181886
2.0250000000000004        -4.9750000000000005      0.0012300457159288031
2.075                     -4.9750000000000005      0.001242180811983716
2.125                     -4.9750000000000005      0.0012547051227203752
2.1750000000000007        -4.9750000000000005      0.001267618701825396
2.2250000000000005        -4.9750000000000005      0.0012809206738736364
2.2750000000000004        -4.9750000000000005      0.0012946074286744101
2.325                     -4.9750000000000005      0.0013086767699658276
2.375                     -4.9750000000000005      0.0013231213342270905
2.425000000000001         -4.9750000000000005      0.0013379376670965798
2.4750000000000005        -4.9750000000000005      0.0013531149875082899
2.5249999999999995        -4.9750000000000005      0.001368648596687107
2.5749999999999993        -4.9750000000000005      0.001384523371680703
2.625                     -4.9750000000000005      0.0014007335841042324
2.675                     -4.9750000000000005      0.0014172612111122175
2.7249999999999996        -4.9750000000000005      0.0014340944497988621
2.7749999999999995        -4.9750000000000005      0.0014512144465785419
2.8249999999999993        -4.9750000000000005      0.0014686088908336425
2.875                     -4.9750000000000005      0.0014862503848524042
2.9250000000000003        -4.9750000000000005      0.0015041382819266497
2.9749999999999996        -4.9750000000000005      0.0015222385399941845
3.0250000000000004        -4.9750000000000005      0.0015405394559999898
3.0749999999999997        -4.9750000000000005      0.0015590086956430442
3.125                     -4.9750000000000005      0.0015776418382138055
3.1750000000000003        -4.9750000000000005      0.0015964046426247358
3.2249999999999996        -4.9750000000000005      0.0016152812734868053
3.2750000000000004        -4.9750000000000005      0.0016342548657190094
3.3249999999999997        -4.9750000000000005      0.0016533081580911689
3.375                     -4.9750000000000005      0.0016724134619225844
3.425000000000001         -4.9750000000000005      0.0016915682615366591
3.475                     -4.9750000000000005      0.0017107454315637592
3.5250000000000004        -4.9750000000000005      0.0017299356341268772
3.5750000000000006        -4.9750000000000005      0.0017491225208885015
3.625                     -4.9750000000000005      0.0017682973767516393
3.6750000000000007        -4.9750000000000005      0.0017874561972524017
3.725000000000001         -4.9750000000000005      0.0018065979953062698
3.7749999999999995        -4.9750000000000005      0.0018257378319602516
3.8249999999999993        -4.9750000000000005      0.001844883712887853
3.875                     -4.9750000000000005      0.0018640772089390638
3.925                     -4.9750000000000005      0.0018833508411287495
3.974999999999999         -4.9750000000000005      0.0019027993030985954
4.025                     -4.9750000000000005      0.0019224701308705352
4.074999999999999         -4.9750000000000005      0.001942550710727272
4.125                     -4.9750000000000005      0.0019631081506879585
4.175000000000001         -4.9750000000000005      0.0019844973068575324
4.225                     -4.9750000000000005      0.00200681607889836
4.275                     -4.9750000000000005      0.00203061601740096
4.324999999999999         -4.9750000000000005      0.002056149237847536
4.375                     -4.9750000000000005      0.002084309313495511
4.425000000000001         -4.9750000000000005      0.002115507443746602
4.475                     -4.9750000000000005      0.002151296951646539
4.525                     -4.9750000000000005      0.0021922797102663935
4.574999999999999         -4.9750000000000005      0.0022413658306554914
4.625                     -4.9750000000000005      0.0022995438045950133
4.675000000000002         -4.9750000000000005      0.002372756764842931
4.725                     -4.9750000000000005      0.002462959791812642
4.775                     -4.9750000000000005      0.0025846908143588782
4.825000000000001         -4.9750000000000005      0.0027411988101544403
4.875                     -4.9750000000000005      0.0029874276053181528
4.925000000000001         -4.9750000000000005      0.003341337397582366
4.975000000000001         -4.9750000000000005      0.0034775344571293296
-4.9750000000000005       -4.925000000000001       0.002496258759395192
-4.925000000000001        -4.925000000000001       0.0026902664374469747
-4.875                    -4.925000000000001       0.0026179643087320143
-4.825                    -4.925000000000001       0.002520624122513082
-4.775                    -4.925000000000001       0.0024201305805560697
-4.725                    -4.925000000000001       0.0023384776824138497
-4.675000000000002        -4.925000000000001       0.002270483580129285
-4.625                    -4.925000000000001       0.002213409256315982
-4.574999999999999        -4.925000000000001       0.002165776660719484
-4.525                    -4.925000000000001       0.0021247517839882504
-4.475                    -4.925000000000001       0.0020895596319730446
-4.425000000000001        -4.925000000000001       0.0020584038016811454
-4.375                    -4.925000000000001       0.0020308009593007804
-4.324999999999999        -4.925000000000001       0.0020056261257156496
-4.275                    -4.925000000000001       0.001982591728214165
-4.225                    -4.925000000000001       0.00196098279812857
-4.175000000000001        -4.925000000000001       0.001940608648717158
-4.125                    -4.925000000000001       0.0019210194308084058
-4.074999999999999        -4.925000000000001       0.0019021068700449013
-4.025                    -4.925000000000001       0.0018835999356140026
-3.974999999999999        -4.925000000000001       0.0018654260761311828
-3.925                    -4.925000000000001       0.0018474199391126864
-3.875                    -4.925000000000001       0.0018295428742878227
-3.8250000000000006       -4.925000000000001       0.0018117033302741323
-3.775                    -4.925000000000001       0.0017938822870797993
-3.7250000000000005       -4.925000000000001       0.001776037874573852
-3.6749999999999994       -4.925000000000001       0.0017581628019292597
-3.625                    -4.925000000000001       0.0017402453111675237
-3.5750000000000006       -4.925000000000001       0.001722284997805681
-3.5250000000000004       -4.925000000000001       0.0017042889887993393
-3.4749999999999996       -4.925000000000001       0.00168626145608383
-3.4250000000000007       -4.925000000000001       0.0016682208679717828
-3.375                    -4.925000000000001       0.001650174372446021
-3.3249999999999997       -4.925000000000001       0.0016321471737358456
-3.2750000000000004       -4.925000000000001       0.0016141482235785942
-3.2249999999999996       -4.925000000000001       0.001596206411776692
-3.1750000000000003       -4.925000000000001       0.0015783315361467525
-3.125                    -4.925000000000001       0.001560553849245784
-3.0749999999999997       -4.925000000000001       0.001542883500270582
-3.0250000000000004       -4.925000000000001       0.001525350876683318
-2.9749999999999996       -4.925000000000001       0.0015079661635888867
-2.9250000000000003       -4.925000000000001       0.0014907588763025115
-2.875                    -4.925000000000001       0.001473738676006215
-2.8249999999999997       -4.925000000000001       0.0014569332651349562
-2.7749999999999995       -4.925000000000001       0.0014403514702782463
-2.7249999999999996       -4.925000000000001       0.0014240188539278859
-2.675                    -4.925000000000001       0.0014079434209964981
-2.625                    -4.925000000000001       0.0013921479138059578
-2.5750000000000006       -4.925000000000001       0.001376639261942543
-2.5249999999999995       -4.925000000000001       0.0013614366173154147
-2.4750000000000005       -4.925000000000001       0.0013465457302348823
-2.425                    -4.925000000000001       0.0013319821827634942
-2.375                    -4.925000000000001       0.0013177507405397679
-2.3249999999999993       -4.925000000000001       0.0013038633888147189
-2.2750000000000004       -4.925000000000001       0.0012903234173404481
-2.2249999999999996       -4.925000000000001       0.0012771390022168413
-2.1750000000000007       -4.925000000000001       0.001264312306192436
-2.125                    -4.925000000000001       0.0012518484647454156
-2.075                    -4.925000000000001       0.0012397486449719983
-2.0250000000000004       -4.925000000000001       0.0012280148750554443
-1.9749999999999999       -4.925000000000001       0.001216647294467436
-1.9249999999999998       -4.925000000000001       0.0012056449184123103
-1.875                    -4.925000000000001       0.0011950070070500113
-1.8250000000000002       -4.925000000000001       0.0011847303199053402
-1.7750000000000001       -4.925000000000001       0.0011748135529851093
-1.7249999999999996       -4.925000000000001       0.0011652519236048584
-1.6749999999999998       -4.925000000000001       0.001156043592432916
-1.6250000000000002       -4.925000000000001       0.0011471823661951333
-1.5749999999999995       -4.925000000000001       0.0011386659698880055
-1.5250000000000004       -4.925000000000001       0.0011304871793880109
-1.4749999999999999       -4.925000000000001       0.0011226434417630875
-1.4250000000000005       -4.925000000000001       0.0011151268430342198
-1.375                    -4.925000000000001       0.0011079346263823675
-1.3250000000000006       -4.925000000000001       0.0011010584852090277
-1.2749999999999997       -4.925000000000001       0.001094495590790492
-1.2250000000000003       -4.925000000000001       0.001088237563992872
-1.1749999999999994       -4.925000000000001       0.0010822815893636352
-1.1250000000000002       -4.925000000000001       0.00107661935775559
-1.0749999999999995       -4.925000000000001       0.001071248098002615
-1.0250000000000001       -4.925000000000001       0.001066159741891802
-0.9749999999999996       -4.925000000000001       0.0010613516501157307
-0.9250000000000007       -4.925000000000001       0.0010568161865494585
-0.875                    -4.925000000000001       0.0010525508846896507
-0.8250000000000002       -4.925000000000001       0.0010485486620134543
-0.7750000000000004       -4.925000000000001       0.0010448072450836877
-0.7249999999999996       -4.925000000000001       0.0010413201718030216
-0.6749999999999998       -4.925000000000001       0.0010380853971387553
-0.625                    -4.925000000000001       0.0010350971663271313
-0.5750000000000002       -4.925000000000001       0.0010323536870112948
-0.5250000000000004       -4.925000000000001       0.0010298499584573545
-0.4749999999999997       -4.925000000000001       0.0010275844388626856
-0.4249999999999998       -4.925000000000001       0.0010255529103939745
-0.375                    -4.925000000000001       0.0010237541008384227
-0.3249999999999993       -4.925000000000001       0.0010221846179002403
-0.27500000000000036      -4.925000000000001       0.0010208434687682746
-0.2250000000000001       -4.925000000000001       0.0010197280975904957
-0.17500000000000027      -4.925000000000001       0.0010188377899583417
-0.125                    -4.925000000000001       0.0010181708313188043
-0.07500000000000062      -4.925000000000001       0.001017726792790278
-0.024999999999999915     -4.925000000000001       0.0010175048137015114
0.02499999999999947       -4.925000000000001       0.0010175047515137581
0.07499999999999929       -4.925000000000001       0.0010177266089513998
0.125                     -4.925000000000001       0.001018170529610292
0.17499999999999982       -4.925000000000001       0.0010188373732256256
0.22499999999999964       -4.925000000000001       0.0010197275679797585
0.27499999999999947       -4.925000000000001       0.0010208428253389648
0.3249999999999993        -4.925000000000001       0.0010221838575569762
0.375                     -4.925000000000001       0.0010237532312575778
0.4249999999999998        -4.925000000000001       0.001025551943975347
0.4749999999999997        -4.925000000000001       0.0010275833991431754
0.5250000000000004        -4.925000000000001       0.0010298488719008205
0.5750000000000002        -4.925000000000001       0.001032352569969773
0.625                     -4.925000000000001       0.001035096031292355
0.6749999999999998        -4.925000000000001       0.0010380842557297584
0.7249999999999996        -4.925000000000001       0.0010413190412422411
0.7750000000000004        -4.925000000000001       0.0010448061441339224
0.8250000000000002        -4.925000000000001       0.0010485476106424085
0.875                     -4.925000000000001       0.0010525498933748184
0.9250000000000007        -4.925000000000001       0.0010568152630473712
0.9750000000000006        -4.925000000000001       0.0010613508041327907
1.0250000000000004        -4.925000000000001       0.0010661589918463787
1.0750000000000002        -4.925000000000001       0.0010712474608743222
1.1250000000000004        -4.925000000000001       0.0010766188560876102
1.1750000000000007        -4.925000000000001       0.0010822812015781058
1.2250000000000005        -4.925000000000001       0.0010882372293131853
1.2749999999999995        -4.925000000000001       0.001094495251377954
1.3249999999999993        -4.925000000000001       0.001101058082025666
1.3749999999999998        -4.925000000000001       0.001107934178882046
1.4249999999999998        -4.925000000000001       0.001115126370233352
1.4749999999999996        -4.925000000000001       0.0011226429772294225
1.5249999999999995        -4.925000000000001       0.001130486707125086
1.5749999999999995        -4.925000000000001       0.0011386655105702567
1.6250000000000002        -4.925000000000001       0.0011471819422147495
1.6749999999999998        -4.925000000000001       0.001156043344279295
1.7249999999999996        -4.925000000000001       0.0011652519871667866
1.7750000000000001        -4.925000000000001       0.0011748140971683044
1.8250000000000002        -4.925000000000001       0.001184731502583811
1.875                     -4.925000000000001       0.001195009036253497
1.9249999999999998        -4.925000000000001       0.0012056480615778922
1.9749999999999999        -4.925000000000001       0.0012166515785868443
2.0250000000000004        -4.925000000000001       0.0012280202324501995
2.075                     -4.925000000000001       0.0012397547424382177
2.125                     -4.925000000000001       0.0012518550069457388
2.1750000000000007        -4.925000000000001       0.0012643193118625357
2.2250000000000005        -4.925000000000001       0.001277146667067965
2.2750000000000004        -4.925000000000001       0.0012903322070909884
2.325                     -4.925000000000001       0.001303873779629561
2.375                     -4.925000000000001       0.0013177630465163737
2.425000000000001         -4.925000000000001       0.001331996707953191
2.4750000000000005        -4.925000000000001       0.0013465629239597654
2.5249999999999995        -4.925000000000001       0.0013614571727700846
2.5749999999999993        -4.925000000000001       0.0013766638791676208
2.625                     -4.925000000000001       0.0013921774391586865
2.675                     -4.925000000000001       0.0014079779081968904
2.7249999999999996        -4.925000000000001       0.0014240583112120411
2.7749999999999995        -4.925000000000001       0.0014403950146866101
2.8249999999999993        -4.925000000000001       0.0014569796739571095
2.875                     -4.925000000000001       0.0014737871313540499
2.9250000000000003        -4.925000000000001       0.001490808740399389
2.9749999999999996        -4.925000000000001       0.0015080163504266886
3.0250000000000004        -4.925000000000001       0.001525399107823261
3.0749999999999997        -4.925000000000001       0.0015429273050263995
3.125                     -4.925000000000001       0.0015605910799431667
3.1750000000000003        -4.925000000000001       0.0015783597995948223
3.2249999999999996        -4.925000000000001       0.0015962237511512253
3.2750000000000004        -4.925000000000001       0.001614153919464928
3.3249999999999997        -4.925000000000001       0.0016321411034099075
3.375                     -4.925000000000001       0.0016501578474319434
3.425000000000001         -4.925000000000001       0.001668195880552014
3.475                     -4.925000000000001       0.0016862311296708676
3.5250000000000004        -4.925000000000001       0.0017042558340772118
3.5750000000000006        -4.925000000000001       0.0017222508989489585
3.625                     -4.925000000000001       0.0017402115875712557
3.6750000000000007        -4.925000000000001       0.0017581302907747343
3.725000000000001         -4.925000000000001       0.001776007238071746
3.7749999999999995        -4.925000000000001       0.0017938538102287085
3.8249999999999993        -4.925000000000001       0.0018116770299666084
3.875                     -4.925000000000001       0.0018295190916400028
3.925                     -4.925000000000001       0.0018473998437349894
3.974999999999999         -4.925000000000001       0.001865409303901687
4.025                     -4.925000000000001       0.0018835863221684287
4.074999999999999         -4.925000000000001       0.0019020917918723887
4.125                     -4.925000000000001       0.001920996393685339
4.175000000000001         -4.925000000000001       0.0019405718342266412
4.225                     -4.925000000000001       0.001960930959108346
4.275                     -4.925000000000001       0.0019825208506113884
4.324999999999999         -4.925000000000001       0.002005526102334532
4.375                     -4.925000000000001       0.002030669609039741
4.425000000000001         -4.925000000000001       0.0020582439228693915
4.475                     -4.925000000000001       0.0020893848666523676
4.525                     -4.925000000000001       0.002124563493583328
4.574999999999999         -4.925000000000001       0.0021655831701185985
4.625                     -4.925000000000001       0.00221322911626122
4.675000000000002         -4.925000000000001       0.0022703102688661422
4.725                     -4.925000000000001       0.0023382840157602953
4.775                     -4.925000000000001       0.0024198684011184565
4.825000000000001         -4.925000000000001       0.0025201114722935257
4.875                     -4.925000000000001       0.0026172466410735416
4.925000000000001         -4.925000000000001       0.002687072683821413
4.975000000000001         -4.925000000000001       0.002502856887466747
-4.9750000000000005       -4.875                   0.001966631141714776
-4.925000000000001        -4.875                   0.0022145432659091825
-4.875                    -4.875                   0.002277641926653357
-4.825                    -4.875                   0.002278361251461488
-4.775                    -4.875                   0.0022406761780917857
-4.725                    -4.875                   0.0021991998167508863
-4.675000000000002        -4.875                   0.00215677377144899