% Model:              230615_coil_gx_saddle_perturbed_squarearea__dissertation.mph
% Version:            COMSOL 5.5.0.359
% Date:               Jun 16 2023, 02:40
% Dimension:          2
% Nodes:              10000
% Expressions:        1
% Description:        Magnetic flux density, y component
% Length unit:        mm
% X                       Y                        mf.By (T)
-4.949999999999999        -4.949999999999999       -3.470837746980815E-5
-4.8500000000000005       -4.949999999999999       -3.443233284516766E-5
-4.75                     -4.949999999999999       -3.4140648468554396E-5
-4.65                     -4.949999999999999       -3.383329043625768E-5
-4.55                     -4.949999999999999       -3.3510162538379995E-5
-4.449999999999999        -4.949999999999999       -3.317116747015682E-5
-4.3500000000000005       -4.949999999999999       -3.281619740413989E-5
-4.25                     -4.949999999999999       -3.24450631812431E-5
-4.15                     -4.949999999999999       -3.205760194698306E-5
-4.050000000000001        -4.949999999999999       -3.1653577000480154E-5
-3.9499999999999997       -4.949999999999999       -3.123279858730943E-5
-3.8499999999999996       -4.949999999999999       -3.0794990520799344E-5
-3.75                     -4.949999999999999       -3.0339856396448865E-5
-3.6500000000000004       -4.949999999999999       -2.9867109477402144E-5
-3.5500000000000003       -4.949999999999999       -2.937646834795738E-5
-3.4499999999999997       -4.949999999999999       -2.88676530058316E-5
-3.3499999999999996       -4.949999999999999       -2.8340383076609326E-5
-3.2500000000000004       -4.949999999999999       -2.779437851136444E-5
-3.1499999999999995       -4.949999999999999       -2.7229360345476643E-5
-3.0499999999999994       -4.949999999999999       -2.664504929147522E-5
-2.95                     -4.949999999999999       -2.604117898114688E-5
-2.8500000000000005       -4.949999999999999       -2.5417506242282253E-5
-2.75                     -4.949999999999999       -2.477381043310184E-5
-2.6500000000000004       -4.949999999999999       -2.4109899988414203E-5
-2.55                     -4.949999999999999       -2.3425625872063204E-5
-2.45                     -4.949999999999999       -2.2720882317984922E-5
-2.3499999999999996       -4.949999999999999       -2.199560830013847E-5
-2.2500000000000004       -4.949999999999999       -2.1249803360247194E-5
-2.1500000000000004       -4.949999999999999       -2.0483512953257974E-5
-2.0500000000000007       -4.949999999999999       -1.9696842308825786E-5
-1.9500000000000006       -4.949999999999999       -1.8889975057002043E-5
-1.8500000000000003       -4.949999999999999       -1.8063164542400877E-5
-1.75                     -4.949999999999999       -1.7216721703960187E-5
-1.6500000000000001       -4.949999999999999       -1.6351035005564114E-5
-1.5500000000000005       -4.949999999999999       -1.5466581911250655E-5
-1.4500000000000002       -4.949999999999999       -1.456392168894127E-5
-1.3499999999999999       -4.949999999999999       -1.3643701795257813E-5
-1.25                     -4.949999999999999       -1.2706655842585743E-5
-1.1500000000000001       -4.949999999999999       -1.1753602197546605E-5
-1.05                     -4.949999999999999       -1.0785452282359779E-5
-0.9499999999999994       -4.949999999999999       -9.803198576046749E-6
-0.8500000000000001       -4.949999999999999       -8.80790834561281E-6
-0.75                     -4.949999999999999       -7.800725430853754E-6
-0.65                     -4.949999999999999       -6.782870463802033E-6
-0.5499999999999994       -4.949999999999999       -5.755621702032741E-6
-0.44999999999999973      -4.949999999999999       -4.7203210532799295E-6
-0.34999999999999964      -4.949999999999999       -3.678362835209401E-6
-0.25                     -4.949999999999999       -2.6311769367105832E-6
-0.15000000000000036      -4.949999999999999       -1.5802334474612768E-6
-0.04999999999999983      -4.949999999999999       -5.270286948570905E-7
0.04999999999999983       -4.949999999999999       5.269344359527396E-7
0.15000000000000036       -4.949999999999999       1.5801462787296326E-6
0.25                      -4.949999999999999       2.6310947843503763E-6
0.35000000000000053       -4.949999999999999       3.6782914333457632E-6
0.4500000000000002        -4.949999999999999       4.720269827422657E-6
0.5500000000000007        -4.949999999999999       5.755585719567137E-6
0.6499999999999995        -4.949999999999999       6.782842756678881E-6
0.75                      -4.949999999999999       7.800699684176173E-6
0.8499999999999996        -4.949999999999999       8.807872781766432E-6
0.9499999999999994        -4.949999999999999       9.803149740121582E-6
1.05                      -4.949999999999999       1.0785391836995094E-5
1.1500000000000001        -4.949999999999999       1.1753528576606444E-5
1.25                      -4.949999999999999       1.2706569309490867E-5
1.3499999999999999        -4.949999999999999       1.3643614385071565E-5
1.4500000000000002        -4.949999999999999       1.4563843086125362E-5
1.5500000000000005        -4.949999999999999       1.5466519302235088E-5
1.6500000000000004        -4.949999999999999       1.6350998313601166E-5
1.7500000000000002        -4.949999999999999       1.7216712369246663E-5
1.8500000000000005        -4.949999999999999       1.806317727980784E-5
1.9499999999999993        -4.949999999999999       1.8889996063586868E-5
2.05                      -4.949999999999999       1.9696847395298583E-5
2.1499999999999995        -4.949999999999999       2.0483491754849816E-5
2.2500000000000004        -4.949999999999999       2.124975937789255E-5
2.3499999999999996        -4.949999999999999       2.1995539714120477E-5
2.45                      -4.949999999999999       2.272078603138394E-5
2.55                      -4.949999999999999       2.3425509217309676E-5
2.6500000000000004        -4.949999999999999       2.4109767994318618E-5
2.75                      -4.949999999999999       2.4773655230597032E-5
2.8500000000000005        -4.949999999999999       2.541731666071068E-5
2.95                      -4.949999999999999       2.6040953251926523E-5
3.0500000000000007        -4.949999999999999       2.6644771032690613E-5
3.149999999999999         -4.949999999999999       2.7229034824816506E-5
3.2500000000000004        -4.949999999999999       2.779401359968954E-5
3.3499999999999996        -4.949999999999999       2.834000546267457E-5
3.4499999999999993        -4.949999999999999       2.886729694266783E-5
3.5500000000000003        -4.949999999999999       2.9376161871844323E-5
3.6500000000000004        -4.949999999999999       2.9866858993282173E-5
3.75                      -4.949999999999999       3.0339668749619065E-5
3.8499999999999996        -4.949999999999999       3.079486785545588E-5
3.9499999999999997        -4.949999999999999       3.123274677756474E-5
4.050000000000001         -4.949999999999999       3.1653574793173964E-5
4.15                      -4.949999999999999       3.2057604526476805E-5
4.25                      -4.949999999999999       3.2445070225267264E-5
4.350000000000001         -4.949999999999999       3.281616880750856E-5
4.449999999999999         -4.949999999999999       3.3171154335611746E-5
4.549999999999999         -4.949999999999999       3.3510164103999936E-5
4.65                      -4.949999999999999       3.383328597319245E-5
4.75                      -4.949999999999999       3.414064309772048E-5
4.8500000000000005        -4.949999999999999       3.4432318066E-5
4.949999999999999         -4.949999999999999       3.470834632241307E-5
-4.949999999999999        -4.8500000000000005      -3.471619960263954E-5
-4.8500000000000005       -4.8500000000000005      -3.442458856618681E-5
-4.75                     -4.8500000000000005      -3.411745537588785E-5
-4.65                     -4.8500000000000005      -3.3794805657917884E-5
-4.55                     -4.8500000000000005      -3.345658836900289E-5
-4.449999999999999        -4.8500000000000005      -3.3102731383806026E-5
-4.3500000000000005       -4.8500000000000005      -3.273313743617659E-5
-4.25                     -4.8500000000000005      -3.234767748559225E-5
-4.15                     -4.8500000000000005      -3.1946200226290526E-5
-4.050000000000001        -4.8500000000000005      -3.1528530887590664E-5
-3.9499999999999997       -4.8500000000000005      -3.10944785978118E-5
-3.8499999999999996       -4.8500000000000005      -3.064382394309839E-5
-3.75                     -4.8500000000000005      -3.0176328642129858E-5
-3.6500000000000004       -4.8500000000000005      -2.9691748784109784E-5
-3.5500000000000003       -4.8500000000000005      -2.9189839763738637E-5
-3.4499999999999997       -4.8500000000000005      -2.8670356819798167E-5
-3.3499999999999996       -4.8500000000000005      -2.813305572062277E-5
-3.2500000000000004       -4.8500000000000005      -2.7577693948205408E-5
-3.1499999999999995       -4.8500000000000005      -2.7004032393287042E-5
-3.0499999999999994       -4.8500000000000005      -2.6411838488959785E-5
-2.95                     -4.8500000000000005      -2.5800892551741907E-5
-2.8500000000000005       -4.8500000000000005      -2.517099406350191E-5
-2.75                     -4.8500000000000005      -2.4521966244751268E-5
-2.6500000000000004       -4.8500000000000005      -2.3853661772168033E-5
-2.55                     -4.8500000000000005      -2.316596924177937E-5
-2.45                     -4.8500000000000005      -2.245881757323703E-5
-2.3499999999999996       -4.8500000000000005      -2.1732180366710213E-5
-2.2500000000000004       -4.8500000000000005      -2.098608058216863E-5
-2.1500000000000004       -4.8500000000000005      -2.022059251583299E-5
-2.0500000000000007       -4.8500000000000005      -1.9435847516523845E-5
-1.9500000000000006       -4.8500000000000005      -1.8632040354440767E-5
-1.8500000000000003       -4.8500000000000005      -1.780942999940488E-5
-1.75                     -4.8500000000000005      -1.696833985501933E-5
-1.6500000000000001       -4.8500000000000005      -1.6109163670385287E-5
-1.5500000000000005       -4.8500000000000005      -1.5232370910031607E-5
-1.4500000000000002       -4.8500000000000005      -1.4338508135094969E-5
-1.3499999999999999       -4.8500000000000005      -1.342820044250922E-5
-1.25                     -4.8500000000000005      -1.2502151820685999E-5
-1.1500000000000001       -4.8500000000000005      -1.1561145016466171E-5
-1.05                     -4.8500000000000005      -1.0606041358479361E-5
-0.9499999999999994       -4.8500000000000005      -9.637777171718781E-6
-0.8500000000000001       -4.8500000000000005      -8.657359669144675E-6
-0.75                     -4.8500000000000005      -7.66586451298648E-6
-0.65                     -4.8500000000000005      -6.664431988828663E-6
-0.5499999999999994       -4.8500000000000005      -5.654260226167802E-6
-0.44999999999999973      -4.8500000000000005      -4.636600377911143E-6
-0.34999999999999964      -4.8500000000000005      -3.6127495415310848E-6
-0.25                     -4.8500000000000005      -2.5840421615554267E-6
-0.15000000000000036      -4.8500000000000005      -1.5518437911393499E-6
-0.04999999999999983      -4.8500000000000005      -5.175421504371585E-7
0.04999999999999983       -4.8500000000000005      5.17463278966738E-7
0.15000000000000036       -4.8500000000000005      1.5517683249979045E-6
0.25                      -4.8500000000000005      2.583972126879919E-6
0.35000000000000053       -4.8500000000000005      3.61268784921945E-6
0.4500000000000002        -4.8500000000000005      4.636549448825405E-6
0.5500000000000007        -4.8500000000000005      5.654218650845873E-6
0.6499999999999995        -4.8500000000000005      6.664395998144565E-6
0.75                      -4.8500000000000005      7.665829258565358E-6
0.8499999999999996        -4.8500000000000005      8.657319873179934E-6
0.9499999999999994        -4.8500000000000005      9.637729897839583E-6
1.05                      -4.8500000000000005      1.0605985945978934E-5
1.1500000000000001        -4.8500000000000005      1.1561081641872143E-5
1.25                      -4.8500000000000005      1.2502082796244226E-5
1.3499999999999999        -4.8500000000000005      1.3428131239042204E-5
1.4500000000000002        -4.8500000000000005      1.433844481723206E-5
1.5500000000000005        -4.8500000000000005      1.5232318899016912E-5
1.6500000000000004        -4.8500000000000005      1.6109127040493767E-5
1.7500000000000002        -4.8500000000000005      1.6968318931436762E-5
1.8500000000000005        -4.8500000000000005      1.7809420524521846E-5
1.9499999999999993        -4.8500000000000005      1.8632033455573703E-5
2.05                      -4.8500000000000005      1.9435832129829055E-5
2.1499999999999995        -4.8500000000000005      2.022056129880953E-5
2.2500000000000004        -4.8500000000000005      2.0986030835158058E-5
2.3499999999999996        -4.8500000000000005      2.173211048460073E-5
2.45                      -4.8500000000000005      2.2458726884909052E-5
2.55                      -4.8500000000000005      2.3165859077233903E-5
2.6500000000000004        -4.8500000000000005      2.3853532490477087E-5
2.75                      -4.8500000000000005      2.4521814685450548E-5
2.8500000000000005        -4.8500000000000005      2.517081558116825E-5
2.95                      -4.8500000000000005      2.5800683374561712E-5
3.0500000000000007        -4.8500000000000005      2.6411595664837464E-5
3.149999999999999         -4.8500000000000005      2.700375861946263E-5
3.2500000000000004        -4.8500000000000005      2.7577398690303848E-5
3.3499999999999996        -4.8500000000000005      2.8132755359751325E-5
3.4499999999999993        -4.8500000000000005      2.8670071225244762E-5
3.5500000000000003        -4.8500000000000005      2.9189585944892644E-5
3.6500000000000004        -4.8500000000000005      2.9691536729026306E-5
3.75                      -4.8500000000000005      3.017616392382555E-5
3.8499999999999996        -4.8500000000000005      3.064370870415838E-5
3.9499999999999997        -4.8500000000000005      3.109441015561175E-5
4.050000000000001         -4.8500000000000005      3.152849722373305E-5
4.15                      -4.8500000000000005      3.194618410929354E-5
4.25                      -4.8500000000000005      3.234766716164828E-5
4.350000000000001         -4.8500000000000005      3.273312583051484E-5
4.449999999999999         -4.8500000000000005      3.310272464341577E-5
4.549999999999999         -4.8500000000000005      3.34565885975016E-5
4.65                      -4.8500000000000005      3.3794808708475866E-5
4.75                      -4.8500000000000005      3.411745968194625E-5
4.8500000000000005        -4.8500000000000005      3.442459231189989E-5
4.949999999999999         -4.8500000000000005      3.471619873443E-5
-4.949999999999999        -4.75                    -3.4739506844587446E-5
-4.8500000000000005       -4.75                    -3.4432327361141624E-5
-4.75                     -4.75                    -3.4109772205007235E-5
-4.65                     -4.75                    -3.377188457908812E-5
-4.55                     -4.75                    -3.3418650040695E-5
-4.449999999999999        -4.75                    -3.305002553152678E-5
-4.3500000000000005       -4.75                    -3.2665941728814924E-5
-4.25                     -4.75                    -3.2266303091474416E-5
-4.15                     -4.75                    -3.185099022990423E-5
-4.050000000000001        -4.75                    -3.1419862141838625E-5
-3.9499999999999997       -4.75                    -3.097275799813943E-5
-3.8499999999999996       -4.75                    -3.050949753396814E-5
-3.75                     -4.75                    -3.002988536967077E-5
-3.6500000000000004       -4.75                    -2.9533717358784723E-5
-3.5500000000000003       -4.75                    -2.9020785201804797E-5
-3.4499999999999997       -4.75                    -2.849087908562739E-5
-3.3499999999999996       -4.75                    -2.7943789680223647E-5
-3.2500000000000004       -4.75                    -2.7379310216028877E-5
-3.1499999999999995       -4.75                    -2.6797239043281637E-5
-3.0499999999999994       -4.75                    -2.6197383135485113E-5
-2.95                     -4.75                    -2.5579562705626415E-5
-2.8500000000000005       -4.75                    -2.494361616862899E-5
-2.75                     -4.75                    -2.4289404958801316E-5
-2.6500000000000004       -4.75                    -2.361681851076768E-5
-2.55                     -4.75                    -2.292577924641168E-5
-2.45                     -4.75                    -2.2216247070258508E-5
-2.3499999999999996       -4.75                    -2.148822354943188E-5
-2.2500000000000004       -4.75                    -2.0741755805842374E-5
-2.1500000000000004       -4.75                    -1.99769400909862E-5
-2.0500000000000007       -4.75                    -1.9193925846873472E-5
-1.9500000000000006       -4.75                    -1.8392919562902857E-5
-1.8500000000000003       -4.75                    -1.757418731727175E-5
-1.75                     -4.75                    -1.6738057072555555E-5
-1.6500000000000001       -4.75                    -1.588492194227705E-5
-1.5500000000000005       -4.75                    -1.5015243316855602E-5
-1.4500000000000002       -4.75                    -1.4129552799933961E-5
-1.3499999999999999       -4.75                    -1.3228453312308515E-5
-1.25                     -4.75                    -1.2312619464269434E-5
-1.1500000000000001       -4.75                    -1.138279724910058E-5
-1.05                     -4.75                    -1.0439802930594003E-5
-0.9499999999999994       -4.75                    -9.48452070858367E-6
-0.8500000000000001       -4.75                    -8.517899684655534E-6
-0.75                     -4.75                    -7.540950615956989E-6
-0.65                     -4.75                    -6.5547419017783966E-6
-0.5499999999999994       -4.75                    -5.560394581881684E-6
-0.44999999999999973      -4.75                    -4.559076930652599E-6
-0.34999999999999964      -4.75                    -3.5519982670323933E-6
-0.25                     -4.75                    -2.5404021250875657E-6
-0.15000000000000036      -4.75                    -1.5255593104542128E-6
-0.04999999999999983      -4.75                    -5.08760271154731E-7
0.04999999999999983       -4.75                    5.086929251568314E-7
0.15000000000000036       -4.75                    1.5254941799670251E-6
0.25                      -4.75                    2.540341086614807E-6
0.35000000000000053       -4.75                    3.5519429419835955E-6
0.4500000000000002        -4.75                    4.559028136849785E-6
0.5500000000000007        -4.75                    5.560351544365947E-6
0.6499999999999995        -4.75                    6.554702437703744E-6
0.75                      -4.75                    7.540911778415862E-6
0.8499999999999996        -4.75                    8.517858547698384E-6
0.9499999999999994        -4.75                    9.484475300704837E-6
1.05                      -4.75                    1.0439752533622542E-5
1.1500000000000001        -4.75                    1.1382742301874015E-5
1.25                      -4.75                    1.2312561780099712E-5
1.3499999999999999        -4.75                    1.3228396027360417E-5
1.4500000000000002        -4.75                    1.4129499532930411E-5
1.5500000000000005        -4.75                    1.5015197255179189E-5
1.6500000000000004        -4.75                    1.588488496848284E-5
1.7500000000000002        -4.75                    1.673802881480886E-5
1.8500000000000005        -4.75                    1.7574164703136822E-5
1.9499999999999993        -4.75                    1.8392897183955295E-5
2.05                      -4.75                    1.9193897435693227E-5
2.1499999999999995        -4.75                    1.9976900550643E-5
2.2500000000000004        -4.75                    2.0741701941546714E-5
2.3499999999999996        -4.75                    2.1488153482898982E-5
2.45                      -4.75                    2.221615985458005E-5
2.55                      -4.75                    2.2925674567097766E-5
2.6500000000000004        -4.75                    2.3616695730440712E-5
2.75                      -4.75                    2.4289262438925928E-5
2.8500000000000005        -4.75                    2.4943451807694273E-5
2.95                      -4.75                    2.55793749932155E-5
3.0500000000000007        -4.75                    2.6197172253370178E-5
3.149999999999999         -4.75                    2.6797008408534185E-5
3.2500000000000004        -4.75                    2.737906728614575E-5
3.3499999999999996        -4.75                    2.7943545466738784E-5
3.4499999999999993        -4.75                    2.8490646197282292E-5
3.5500000000000003        -4.75                    2.9020575007250744E-5
3.6500000000000004        -4.75                    2.953353801882962E-5
3.75                      -4.75                    3.002974162953744E-5
3.8499999999999996        -4.75                    3.050939076808874E-5
3.9499999999999997        -4.75                    3.097268566203781E-5
4.050000000000001         -4.75                    3.141981745445998E-5
4.15                      -4.75                    3.185096426337774E-5
4.25                      -4.75                    3.2266288287026154E-5
4.350000000000001         -4.75                    3.2665933891488E-5
4.449999999999999         -4.75                    3.3050024245867965E-5
4.549999999999999         -4.75                    3.341865529710997E-5
4.65                      -4.75                    3.377189535956117E-5
4.75                      -4.75                    3.410978804853249E-5
4.8500000000000005        -4.75                    3.44323492450776E-5
4.949999999999999         -4.75                    3.4739537865473684E-5
-4.949999999999999        -4.65                    -3.477820158369194E-5
-4.8500000000000005       -4.65                    -3.445540374936768E-5
-4.75                     -4.65                    -3.411741374915612E-5
-4.65                     -4.65                    -3.3764305910570764E-5
-4.55                     -4.65                    -3.339609732086816E-5
-4.449999999999999        -4.65                    -3.3012774463951576E-5
-4.3500000000000005       -4.65                    -3.261429697514736E-5
-4.25                     -4.65                    -3.2200599243582764E-5
-4.15                     -4.65                    -3.177159232523984E-5
-4.050000000000001        -4.65                    -3.132716606317977E-5
-3.9499999999999997       -4.65                    -3.0867191157470625E-5
-3.8499999999999996       -4.65                    -3.039152144623457E-5
-3.75                     -4.65                    -2.9899997312408963E-5
-3.6500000000000004       -4.65                    -2.9392449848501022E-5
-3.5500000000000003       -4.65                    -2.8868704679651947E-5
-3.4499999999999997       -4.65                    -2.8328585057863295E-5
-3.3499999999999996       -4.65                    -2.777191453260412E-5
-3.2500000000000004       -4.65                    -2.719851959877747E-5
-3.1499999999999995       -4.65                    -2.6608232635829705E-5
-3.0499999999999994       -4.65                    -2.6000895359258504E-5
-2.95                     -4.65                    -2.5376362805020597E-5
-2.8500000000000005       -4.65                    -2.4734507618795587E-5
-2.75                     -4.65                    -2.4075224442000645E-5
-2.6500000000000004       -4.65                    -2.3398434333987977E-5
-2.55                     -4.65                    -2.2704089123682777E-5
-2.45                     -4.65                    -2.1992175545561708E-5
-2.3499999999999996       -4.65                    -2.1262719133442676E-5
-2.2500000000000004       -4.65                    -2.0515787887811518E-5
-2.1500000000000004       -4.65                    -1.975149577878139E-5
-2.0500000000000007       -4.65                    -1.897000617700549E-5
-1.9500000000000006       -4.65                    -1.817153502211892E-5
-1.8500000000000003       -4.65                    -1.7356353522883698E-5
-1.75                     -4.65                    -1.6524790620132645E-5
-1.6500000000000001       -4.65                    -1.567723544938929E-5
-1.5500000000000005       -4.65                    -1.481413954248018E-5
-1.4500000000000002       -4.65                    -1.393601841578166E-5
-1.3499999999999999       -4.65                    -1.3043452474472373E-5
-1.25                     -4.65                    -1.2137087246324449E-5
-1.1500000000000001       -4.65                    -1.1217632935843008E-5
-1.05                     -4.65                    -1.0285863237678852E-5
-0.9499999999999994       -4.65                    -9.342613361577484E-6
-0.8500000000000001       -4.65                    -8.388777399196403E-6
-0.75                     -4.65                    -7.425305151022017E-6
-0.65                     -4.65                    -6.453198334635081E-6
-0.5499999999999994       -4.65                    -5.473506137258207E-6
-0.44999999999999973      -4.65                    -4.4873202017394955E-6
-0.34999999999999964      -4.65                    -3.495769054598869E-6
-0.25                     -4.65                    -2.500012053489525E-6
-0.15000000000000036      -4.65                    -1.5012329734482928E-6
-0.04999999999999983      -4.65                    -5.006332320125133E-7
0.04999999999999983       -4.65                    5.005751100235925E-7
0.15000000000000036       -4.65                    1.5011763680801077E-6
0.25                      -4.65                    2.499958286040199E-6
0.35000000000000053       -4.65                    3.4957190886902925E-6
0.4500000000000002        -4.65                    4.487274379484757E-6
0.5500000000000007        -4.65                    5.473463943647941E-6
0.6499999999999995        -4.65                    6.453158464260957E-6
0.75                      -4.65                    7.4252658483202704E-6
0.8499999999999996        -4.65                    8.38873693309419E-6
0.9499999999999994        -4.65                    9.342570490006626E-6
1.05                      -4.65                    1.0285817472277716E-5
1.1500000000000001        -4.65                    1.121758462609228E-5
1.25                      -4.65                    1.213703758854671E-5
1.3499999999999999        -4.65                    1.3043403336329063E-5
1.4500000000000002        -4.65                    1.3935971888454077E-5
1.5500000000000005        -4.65                    1.481409736423511E-5
1.6500000000000004        -4.65                    1.5677198426271517E-5
1.7500000000000002        -4.65                    1.652475814986326E-5
1.8500000000000005        -4.65                    1.735632342645859E-5
1.9499999999999993        -4.65                    1.8171503844566823E-5
2.05                      -4.65                    1.8969969956325376E-5
2.1499999999999995        -4.65                    1.975145094022665E-5
2.2500000000000004        -4.65                    2.0515731729426297E-5
2.3499999999999996        -4.65                    2.1262649818146982E-5
2.45                      -4.65                    2.1992091911789854E-5
2.55                      -4.65                    2.2703990412717763E-5
2.6500000000000004        -4.65                    2.3398319825106986E-5
2.75                      -4.65                    2.4075093269854648E-5
2.8500000000000005        -4.65                    2.4734359025979455E-5
2.95                      -4.65                    2.5376196720466552E-5
3.0500000000000007        -4.65                    2.6000713112046456E-5
3.149999999999999         -4.65                    2.6608037639847565E-5
3.2500000000000004        -4.65                    2.7198317633101637E-5
3.3499999999999996        -4.65                    2.7771713322048163E-5
3.4499999999999993        -4.65                    2.8328393150014016E-5
3.5500000000000003        -4.65                    2.8868529989263514E-5
3.6500000000000004        -4.65                    2.9392298498764053E-5
3.75                      -4.65                    2.9899873078738646E-5
3.8499999999999996        -4.65                    3.039142553054457E-5
3.9499999999999997        -4.65                    3.086712208873918E-5
4.050000000000001         -4.65                    3.13271200168396E-5
4.15                      -4.65                    3.1771564267335776E-5
4.25                      -4.65                    3.2200584510575226E-5
4.350000000000001         -4.65                    3.261429238510696E-5
4.449999999999999         -4.65                    3.3012778436689615E-5
4.549999999999999         -4.65                    3.339610905987782E-5
4.65                      -4.65                    3.3764324923789565E-5
4.75                      -4.65                    3.4117440266743397E-5
4.8500000000000005        -4.65                    3.445543952796751E-5
4.949999999999999         -4.65                    3.477825050582059E-5
-4.949999999999999        -4.55                    -3.483213301561893E-5
-4.8500000000000005       -4.55                    -3.449363567364709E-5
-4.75                     -4.55                    -3.414016533614905E-5
-4.65                     -4.55                    -3.37718230777414E-5
-4.55                     -4.55                    -3.3388654412956794E-5